LAMMPS (16 Mar 2018)
  using 1 OpenMP thread(s) per MPI task
units           metal
dimension       3
boundary        p p p

atom_style      full

read_data	DATA.FILE
  orthogonal box = (-70 -70 -70) to (70 70 70)
  8 by 8 by 17 MPI processor grid
  reading atoms ...
  265838 atoms
  scanning bonds ...
  2 = max bonds/atom
  scanning angles ...
  1 = max angles/atom
  reading bonds ...
  176634 bonds
  reading angles ...
  88317 angles
  2 = max # of 1-2 neighbors
  1 = max # of 1-3 neighbors
  1 = max # of 1-4 neighbors
  2 = max # of special neighbors
include     ../shared/PARM.FILE
# Generated by setup_lammps

pair_style      hybrid eam lj/charmm/coul/long 8.0 10.0
bond_style      harmonic
angle_style     charmm
kspace_style    pppm    0.0001
special_bonds   charmm

mass   1      196.9666 # AU
mass   2      15.9994 # OT
mass   3      1.0080 # HT

pair_coeff  1     1     eam ../shared/Au_u3.eam # AU   AU
Reading potential file ../shared/Au_u3.eam with DATE: 2007-06-11
pair_coeff  1     2     lj/charmm/coul/long 0.0256 3.6000 0.0000 1.7818 # OT   AU
pair_coeff  1     3     lj/charmm/coul/long -0.0000 2.6909 0.0000 1.7818 # HT   AU
pair_coeff  2     2     lj/charmm/coul/long 0.0067 3.1661 0.0000 1.7818 # OT   OT
pair_coeff  2     3     lj/charmm/coul/long -0.0000 2.4739 0.0000 1.7818 # HT   OT
pair_coeff  3     3     lj/charmm/coul/long 0.0000 1.7818 0.0000 1.7818 # HT   HT

bond_coeff  1       24.0679   1.0000 # OT HT

angle_coeff 1        1.9874 109.4000   0.0000   0.0000 # HT OT HT



group           AU type 1
887 atoms in group AU
group           water type 2 3
264951 atoms in group water
group		group1 type 1
887 atoms in group group1
group		group3 type 2 3
264951 atoms in group group3


timestep        0.001
run_style       verlet
neighbor 	2.0 bin
neigh_modify    every 1 delay 2 check yes

fix 		99 AU spring tether 10.0 0.0 0.0 0.0 0.0
fix 		fixmomentum all momentum 1 linear 1 1 1

dump       	23 all dcd  10000 out.dcd
#dump        233 all xyz 1 out.xyz

thermo_style custom step temp press enthalpy lx ly lz
thermo		1000


###### minimize
minimize 1e-4 1e-6 100 1000
WARNING: Using 'neigh_modify every 1 delay 0 check yes' setting during minimization (../min.cpp:168)
PPPM initialization ...
  using 12-bit tables for long-range coulomb (../kspace.cpp:321)
  G vector (1/distance) = 0.263352
  grid = 72 72 72
  stencil order = 5
  estimated absolute RMS force accuracy = 0.00139571
  estimated relative force accuracy = 9.69266e-05
  using double precision FFTs
  3d grid and FFT values/proc = 2816 648
WARNING: Using a manybody potential with bonds/angles/dihedrals and special_bond exclusions (../pair.cpp:218)
Neighbor list info ...
  update every 1 steps, delay 0 steps, check yes
  max neighbors/atom: 2000, page size: 100000
  master list distance cutoff = 12
  ghost atom cutoff = 12
  binsize = 6, bins = 24 24 24
  3 neighbor lists, perpetual/occasional/extra = 3 0 0
  (1) pair eam, perpetual, skip from (3)
      attributes: half, newton on
      pair build: skip
      stencil: none
      bin: none
  (2) pair lj/charmm/coul/long, perpetual, skip from (3)
      attributes: half, newton on
      pair build: skip
      stencil: none
      bin: none
  (3) neighbor class addition, perpetual
      attributes: half, newton on
      pair build: half/bin/newton
      stencil: half/bin/3d/newton
      bin: standard
Per MPI rank memory allocation (min/avg/max) = 13.23 | 13.32 | 14.92 Mbytes
Step Temp Press Enthalpy Lx Ly Lz
       0            0    535562.27    1088094.8          140          140          140
     100            0   -10081.277   -71054.114          140          140          140
Loop time of 2.46939 on 1088 procs for 100 steps with 265838 atoms

97.3% CPU use with 1088 MPI tasks x 1 OpenMP threads

Minimization stats:
  Stopping criterion = max iterations
  Energy initial, next-to-last, final =
         170853.207177     -53780.5929384     -53788.2115643
  Force two-norm initial, final = 944832 19.2034
  Force max component initial, final = 271828 1.72657
  Final line search alpha, max atom move = 0.0264969 0.0457486
  Iterations, force evaluations = 100 110

MPI task timing breakdown:
Section |  min time  |  avg time  |  max time  |%varavg| %total
---------------------------------------------------------------
Pair    | 0.39316    | 1.0732     | 1.2619     |   9.3 | 43.46
Bond    | 0.0027797  | 0.00674    | 0.0077784  |   0.6 |  0.27
Kspace  | 0.96276    | 1.1523     | 1.838      |   9.0 | 46.66
Neigh   | 0.030955   | 0.031632   | 0.032189   |   0.1 |  1.28
Comm    | 0.072152   | 0.082307   | 0.09103    |   1.7 |  3.33
Output  | 0.00042701 | 0.00051353 | 0.00057101 |   0.0 |  0.02
Modify  | 0.021535   | 0.026498   | 0.034353   |   2.0 |  1.07
Other   |            | 0.09625    |            |       |  3.90

Nlocal:    244.336 ave 276 max 155 min
Histogram: 3 9 0 0 5 71 245 429 276 50
Nghost:    5142.52 ave 5381 max 4324 min
Histogram: 4 3 5 1 7 60 155 399 275 179
Neighs:    28.83 ave 4177 max 0 min
Histogram: 1076 0 0 2 3 2 1 1 1 2

Total # of neighbors = 31367
Ave neighs/atom = 0.117993
Ave special neighs/atom = 1.99333
Neighbor list builds = 3
Dangerous builds = 0


###### equilibrate - NVT


velocity all create 300.0 4928462 rot yes dist gaussian
fix 1 all nvt temp 300 300 $(100.0*dt)
fix 1 all nvt temp 300 300 0.10000000000000000555

run 1000000 # 1 ns
PPPM initialization ...
  using 12-bit tables for long-range coulomb (../kspace.cpp:321)
  G vector (1/distance) = 0.263352
  grid = 72 72 72
  stencil order = 5
  estimated absolute RMS force accuracy = 0.00139571
  estimated relative force accuracy = 9.69266e-05
  using double precision FFTs
  3d grid and FFT values/proc = 2816 648
WARNING: Using a manybody potential with bonds/angles/dihedrals and special_bond exclusions (../pair.cpp:218)
Neighbor list info ...
  update every 1 steps, delay 2 steps, check yes
  max neighbors/atom: 2000, page size: 100000
  master list distance cutoff = 12
  ghost atom cutoff = 12
  binsize = 6, bins = 24 24 24
  3 neighbor lists, perpetual/occasional/extra = 3 0 0
  (1) pair eam, perpetual, skip from (3)
      attributes: half, newton on
      pair build: skip
      stencil: none
      bin: none
  (2) pair lj/charmm/coul/long, perpetual, skip from (3)
      attributes: half, newton on
      pair build: skip
      stencil: none
      bin: none
  (3) neighbor class addition, perpetual
      attributes: half, newton on
      pair build: half/bin/newton
      stencil: half/bin/3d/newton
      bin: standard
Per MPI rank memory allocation (min/avg/max) = 12.84 | 12.92 | 13.8 Mbytes
Step Temp Press Enthalpy Lx Ly Lz
     100          300   -6068.5802    -53873.05          140          140          140
    1000     272.1928   -1934.1425   -40635.731          140          140          140
    2000    299.02922   -1637.2042   -37968.001          140          140          140
    3000     301.1031   -1098.6999   -37042.159          140          140          140
    4000    299.90267   -1310.0251   -37569.372          140          140          140
    5000    299.45967   -1155.3384   -37316.764          140          140          140
    6000    299.72885   -1236.7309   -37513.338          140          140          140
    7000    300.08039   -1197.0749    -37466.44          140          140          140
    8000    300.16793   -1100.2241   -37258.949          140          140          140
    9000    299.96331   -1083.6369    -37271.53          140          140          140
   10000    299.96605   -1165.9429   -37396.937          140          140          140
   11000    300.62284   -1260.1485   -37543.209          140          140          140
   12000    299.35217   -1224.7927   -37528.481          140          140          140
   13000    299.45633   -1251.4405   -37616.597          140          140          140
   14000      299.639   -1057.1406   -37213.562          140          140          140
   15000      299.624   -955.79659   -37072.115          140          140          140
   16000    300.39119    -1009.625   -37181.217          140          140          140
   17000    299.72242    -1095.136   -37359.941          140          140          140
   18000     300.0675   -1136.8719   -37432.728          140          140          140
   19000    299.79868   -1139.1414   -37428.804          140          140          140
   20000    300.50215   -1101.1837   -37338.078          140          140          140
   21000    299.89997   -1093.9753    -37323.62          140          140          140
   22000    299.30988   -1151.2494   -37496.003          140          140          140
   23000    299.95028    -1260.599   -37649.237          140          140          140
   24000    300.10041   -1265.8369   -37667.411          140          140          140
   25000    299.31941   -1289.4928   -37767.427          140          140          140
   26000    301.30827   -1128.7447   -37402.515          140          140          140
   27000    299.95603   -1048.3836   -37316.912          140          140          140
   28000    300.50568   -1174.5186   -37514.965          140          140          140
   29000    299.63225   -1184.3278   -37546.888          140          140          140
   30000    299.80799   -1353.0051   -37833.302          140          140          140
   31000    300.24514   -1081.2666   -37330.662          140          140          140
   32000    299.87829   -1240.4251   -37663.743          140          140          140
   33000    301.10791   -1080.3333   -37344.732          140          140          140
   34000    300.06545    -1160.099   -37521.402          140          140          140
   35000    300.33351   -1122.6815   -37420.015          140          140          140
   36000    299.14548   -1320.2306   -37853.928          140          140          140
   37000    299.86365    -1247.391   -37699.955          140          140          140
   38000    300.48349   -1107.8232   -37390.389          140          140          140
   39000     300.3488    -1412.548   -37955.499          140          140          140
   40000    299.95067   -1346.4515   -37797.773          140          140          140
   41000    300.06326   -1231.1573   -37669.926          140          140          140
   42000    299.22378   -1426.9082   -38021.351          140          140          140
   43000    299.59159   -1398.5423   -37963.473          140          140          140
   44000    300.88411   -1340.7062   -37843.052          140          140          140
   45000    300.62807   -1275.3793   -37728.733          140          140          140
   46000    300.30994   -1279.8322    -37773.43          140          140          140
   47000    300.60716   -1308.5992   -37737.514          140          140          140
   48000    299.78667   -1156.3382   -37572.306          140          140          140
   49000    299.25122   -1099.0919   -37492.907          140          140          140
   50000    299.98738   -979.59707   -37219.025          140          140          140
   51000    299.01645   -1217.3094    -37674.55          140          140          140
   52000    300.64046    -1151.998   -37518.469          140          140          140
   53000    300.77512    -1146.232   -37549.452          140          140          140
   54000    299.15922   -1295.7202   -37874.684          140          140          140
   55000    300.07221   -1091.8035   -37453.516          140          140          140
   56000     299.8089   -1205.1054   -37729.139          140          140          140
   57000    300.23293   -1114.6856   -37534.075          140          140          140
   58000    300.12653   -1228.1651    -37683.32          140          140          140
   59000    299.54396   -1178.9276    -37651.02          140          140          140
   60000    299.91511   -1206.6799    -37673.78          140          140          140
   61000     299.7865   -1230.4023   -37687.993          140          140          140
   62000    300.09725   -1330.1897   -37933.762          140          140          140
   63000    299.44119   -1207.1452   -37708.322          140          140          140
   64000    299.06799   -1044.0697   -37422.266          140          140          140
   65000    299.60937   -1053.6061   -37441.849          140          140          140
   66000    299.79086   -1122.2176   -37608.541          140          140          140
   67000     300.4588   -1066.8783   -37470.325          140          140          140
   68000    300.13573   -1148.7361    -37608.95          140          140          140
   69000    299.88924   -1379.6152   -37989.668          140          140          140
   70000    300.58041   -1298.0634   -37797.616          140          140          140
   71000    299.39334   -1271.6228   -37830.454          140          140          140
   72000    299.70361   -1156.0745   -37632.596          140          140          140
   73000    300.09439   -1127.9197    -37581.68          140          140          140
   74000    300.97047   -1353.4459    -37980.56          140          140          140
   75000    300.39947   -1217.6558   -37718.725          140          140          140
   76000    298.81618   -1145.2681   -37650.587          140          140          140
   77000    300.20543   -1342.3858   -37935.592          140          140          140
   78000    300.68698   -1246.3363   -37766.262          140          140          140
   79000     299.3781    -1309.477   -37936.217          140          140          140
   80000    300.70094   -1119.0555    -37519.93          140          140          140
   81000    300.85641   -1077.9027   -37469.157          140          140          140
   82000    299.14296   -1367.8833   -37993.095          140          140          140
   83000    299.91068   -1222.0533   -37722.031          140          140          140
   84000    300.16594   -1246.0568    -37814.69          140          140          140
   85000    300.16121   -1373.1211    -38009.31          140          140          140
   86000    300.35557   -1254.2628   -37760.748          140          140          140
   87000    300.03184   -1322.9967   -37903.158          140          140          140
   88000    300.07539   -1384.7093   -38001.394          140          140          140
   89000    299.39857   -1243.7073   -37807.724          140          140          140
   90000     300.1756   -1242.7226   -37719.938          140          140          140
   91000    299.91023   -1286.0341   -37852.436          140          140          140
   92000    300.45547   -1385.5267   -38056.903          140          140          140
   93000    299.94127   -1343.2376   -37991.585          140          140          140
   94000     300.4457   -1155.6824   -37622.094          140          140          140
   95000     300.3105   -989.31451    -37356.17          140          140          140
   96000    299.94024    -1098.011    -37559.89          140          140          140
   97000    300.05161   -1307.8336   -37904.492          140          140          140
   98000    300.36956   -1049.4781   -37485.977          140          140          140
   99000    300.20539   -1180.3696   -37705.891          140          140          140
  100000    299.65018   -1155.3656   -37664.418          140          140          140
  101000    300.49005   -1351.4379   -37953.015          140          140          140
  102000    299.68045    -1442.462   -38153.039          140          140          140
  103000    299.32573   -1296.7739   -37923.075          140          140          140
  104000    299.62323   -1252.0301   -37841.862          140          140          140
  105000    299.60572   -1386.9194   -38054.587          140          140          140
  106000    299.62995   -1302.0887   -37890.885          140          140          140
  107000    299.34023   -1133.9072    -37648.31          140          140          140
  108000    299.51809    -1183.826   -37692.711          140          140          140
  109000    299.39421   -1291.2736   -37871.325          140          140          140
  110000    300.70974   -1146.2466   -37624.469          140          140          140
  111000    300.27556    -1040.171   -37505.626          140          140          140
  112000    299.75571   -1098.6161   -37580.052          140          140          140
  113000    299.92704   -1335.7677   -37967.414          140          140          140
  114000    300.37486   -1250.9607   -37800.841          140          140          140
  115000    299.92316   -1294.8036   -37892.617          140          140          140
  116000    299.22176   -1249.8658   -37851.015          140          140          140
  117000    300.40061   -1208.4197   -37734.775          140          140          140
  118000    299.71625   -1200.5901   -37743.726          140          140          140
  119000     300.4378   -1298.9592     -37905.4          140          140          140
  120000    299.49408   -1198.9417   -37739.215          140          140          140
  121000    300.23697   -1064.2146   -37479.899          140          140          140
  122000     300.0879   -1071.2845   -37475.702          140          140          140
  123000    299.80889   -1144.1547   -37670.826          140          140          140
  124000    299.20769   -1214.3094   -37815.032          140          140          140
  125000    299.93367   -1270.9425   -37881.311          140          140          140
  126000     299.5268   -1407.0335   -38095.383          140          140          140
  127000     300.2157   -1313.7607    -37993.84          140          140          140
  128000    299.81964   -1195.5219    -37807.33          140          140          140
  129000    300.40267   -1228.8003   -37813.414          140          140          140
  130000    300.41456   -1444.4105   -38181.902          140          140          140
  131000    300.37655   -1329.9333   -37977.693          140          140          140
  132000      299.614   -1465.6019   -38244.718          140          140          140
  133000    299.75798   -1311.2526   -37961.374          140          140          140
  134000    299.66844   -1185.7263   -37729.602          140          140          140
  135000    301.33077   -1090.7542    -37521.79          140          140          140
  136000     300.2988   -1284.2989   -37868.229          140          140          140
  137000    299.75433   -1209.7116   -37824.758          140          140          140
  138000    299.65163    -1201.333   -37813.997          140          140          140
  139000    299.60918   -1187.7404   -37744.715          140          140          140
  140000    300.85404   -1247.6886   -37808.244          140          140          140
  141000    299.57979   -1244.8514   -37834.374          140          140          140
  142000    300.03258   -1290.5205   -37956.464          140          140          140
  143000    299.66243     -1341.97   -38000.822          140          140          140
  144000    299.95816   -1301.4657   -37922.655          140          140          140
  145000    300.20236   -1551.7985   -38373.562          140          140          140
  146000    299.80456   -1346.1503   -38000.792          140          140          140
  147000    299.57608   -1320.7054   -37979.078          140          140          140
  148000    300.00896   -1407.3323   -38135.399          140          140          140
  149000    300.46287   -1404.1113   -38085.307          140          140          140
  150000    299.99664    -1201.558   -37748.531          140          140          140
  151000    300.49382   -1242.8854   -37851.487          140          140          140
  152000    300.03093   -1203.1736   -37762.732          140          140          140
  153000    299.11141   -1243.8581   -37915.338          140          140          140
  154000    300.56056   -1251.4002   -37855.612          140          140          140
  155000    299.17778    -1248.007   -37875.544          140          140          140
  156000    299.50284   -1118.8042   -37629.078          140          140          140
  157000    300.59887   -1082.8003   -37537.041          140          140          140
  158000     300.0399    -1132.646   -37662.419          140          140          140
  159000    299.09659   -1314.1419   -38035.946          140          140          140
  160000    300.01478   -1472.4067   -38240.814          140          140          140
  161000    300.02026   -1448.1698   -38199.599          140          140          140
  162000    300.24019   -1275.0042   -37911.923          140          140          140
  163000    300.52201   -1293.0402   -37935.716          140          140          140
  164000    300.78363   -1353.9099   -38039.001          140          140          140
  165000    300.52071   -1014.1159   -37420.248          140          140          140
  166000    300.20085   -1441.9581   -38180.078          140          140          140
  167000    299.52271   -1169.6796   -37760.768          140          140          140
  168000    299.71335   -1302.0975   -37951.785          140          140          140
  169000    299.56905   -1378.6714   -38103.427          140          140          140
  170000    300.04605   -1160.7259   -37708.092          140          140          140
  171000    299.76775   -1292.5054   -37971.752          140          140          140
  172000    299.72254   -1177.4082   -37774.307          140          140          140
  173000    301.58652   -1117.6475   -37577.155          140          140          140
  174000    300.13289   -1238.7081   -37877.536          140          140          140
  175000    300.06759   -1262.9023   -37889.592          140          140          140
  176000    299.87389   -1103.3837   -37650.196          140          140          140
  177000    300.38264   -1205.2228   -37809.261          140          140          140
  178000    299.64019   -1094.6186   -37625.772          140          140          140
  179000    300.53678   -1189.0867   -37767.081          140          140          140
  180000    300.15357   -1298.3393   -37956.018          140          140          140
  181000    299.02032   -1319.0951   -38001.449          140          140          140
  182000    299.50922   -1439.8446   -38195.652          140          140          140
  183000    300.49263   -1120.2837   -37612.795          140          140          140
  184000    299.92735   -1169.9666   -37745.858          140          140          140
  185000     299.3913   -1051.8817   -37581.936          140          140          140
  186000    299.71764   -1116.3868    -37677.04          140          140          140
  187000    299.93045   -1352.7412   -38052.869          140          140          140
  188000    299.46605   -1272.0312   -37958.079          140          140          140
  189000     299.5136   -1237.2542   -37859.814          140          140          140
  190000     299.3185   -1312.5015    -38002.76          140          140          140
  191000    300.63063    -1387.249   -38063.925          140          140          140
  192000    300.65267   -1450.7845   -38217.548          140          140          140
  193000    300.00121   -1204.8784   -37819.189          140          140          140
  194000    300.54734   -1342.9194   -37981.997          140          140          140
  195000    299.82288    -1319.011   -38008.448          140          140          140
  196000    300.12879   -1393.0653    -38108.26          140          140          140
  197000     301.3082   -1275.2712   -37867.644          140          140          140
  198000    299.95029   -1170.6183   -37734.971          140          140          140
  199000    299.76549   -1220.9723   -37843.278          140          140          140
  200000    299.87639   -1318.8577   -37981.997          140          140          140
  201000    299.84313   -1302.2326   -37935.344          140          140          140
  202000    300.10815   -1209.0598   -37766.331          140          140          140
  203000    299.48599   -1045.8663   -37553.983          140          140          140
  204000    299.71396   -1330.7171   -37986.254          140          140          140
  205000    300.26491   -1413.5986   -38110.698          140          140          140
  206000    299.78821   -1415.3807   -38170.477          140          140          140
  207000    299.87511   -1365.9877   -38021.807          140          140          140
  208000    299.67762   -1284.6437   -37951.689          140          140          140
  209000    299.96175   -1084.7998   -37609.314          140          140          140
  210000    299.95131   -1075.4952   -37567.341          140          140          140
  211000    300.03445   -1309.8186   -38001.827          140          140          140
  212000    300.09584   -1291.8061   -37979.194          140          140          140
  213000    300.16989   -1333.2793   -38062.774          140          140          140
  214000    299.97072   -1383.2278   -38145.665          140          140          140
  215000    300.19712    -1129.667   -37647.452          140          140          140
  216000    300.08421   -1279.0471   -37901.394          140          140          140
  217000     299.5829   -1320.1473   -38043.092          140          140          140
  218000    300.28497   -1389.8124   -38100.996          140          140          140
  219000    299.04477   -1186.1925   -37859.524          140          140          140
  220000    300.43363   -1378.4145   -38105.346          140          140          140
  221000    300.49815   -1303.1056   -37954.855          140          140          140
  222000    299.06764   -1289.1255   -37986.974          140          140          140
  223000    299.87041   -1061.6946   -37621.566          140          140          140
  224000     299.8511   -1253.7518   -37934.271          140          140          140
  225000    300.82728   -1354.4999   -38047.168          140          140          140
  226000    300.08802   -1356.6095   -38017.599          140          140          140
  227000    299.69786   -1151.2054    -37715.97          140          140          140
  228000    299.69146   -1111.1717   -37667.079          140          140          140
  229000    299.52482   -1299.2106     -37969.6          140          140          140
  230000    300.61756   -1202.9218   -37793.738          140          140          140
  231000    300.34131   -1394.1231   -38121.566          140          140          140
  232000    299.44904   -1378.6747   -38106.931          140          140          140
  233000    299.30807   -1390.4439   -38142.138          140          140          140
  234000      300.176   -1273.1206   -37916.123          140          140          140
  235000    299.70989    -1201.857   -37831.191          140          140          140
  236000    300.42364   -1430.2649    -38182.46          140          140          140
  237000    300.23012    -1018.835   -37514.451          140          140          140
  238000    300.54704    -1301.544    -37976.42          140          140          140
  239000    300.95792   -1331.1854   -37988.403          140          140          140
  240000    299.41594   -1220.8858   -37844.377          140          140          140
  241000    300.31887   -1199.4259   -37768.614          140          140          140
  242000    299.80928    -1337.309   -38033.723          140          140          140
  243000    300.75329   -1221.6027   -37821.328          140          140          140
  244000    299.98185   -1110.5106   -37610.726          140          140          140
  245000    300.34236   -1205.5487    -37779.85          140          140          140
  246000    300.09826     -1301.05   -37978.431          140          140          140
  247000      299.745    -1459.163   -38276.689          140          140          140
  248000    299.13722   -1285.3577    -37993.81          140          140          140
  249000    299.85744   -1334.7772   -38035.809          140          140          140
  250000    300.60878   -1246.5161   -37909.531          140          140          140
  251000    300.67052   -968.23625   -37373.853          140          140          140
  252000    299.10213   -1120.8461   -37701.623          140          140          140
  253000    299.96195   -1339.9311   -38022.016          140          140          140
  254000    300.00421    -1290.434   -37911.132          140          140          140
  255000    299.75286   -1382.0062   -38131.923          140          140          140
  256000    299.94855   -1118.0036   -37677.001          140          140          140
  257000    300.43072   -1261.2794   -37912.871          140          140          140
  258000    300.71672   -1290.0105   -37906.485          140          140          140
  259000    300.14369   -1474.8382   -38274.617          140          140          140
  260000    299.85735   -1254.2236   -37874.171          140          140          140
  261000    299.28791   -1272.8268    -38009.41          140          140          140
  262000    299.49978   -1458.2211   -38263.817          140          140          140
  263000    300.15816   -1444.3338   -38271.252          140          140          140
  264000    299.86904   -1336.1753    -38066.14          140          140          140
  265000    300.08895   -1146.5663   -37720.349          140          140          140
  266000    299.42936   -1202.4233   -37866.002          140          140          140
  267000    300.41136   -1247.0378   -37861.982          140          140          140
  268000    300.09218   -1419.9176   -38210.316          140          140          140
  269000    299.66681   -1523.5901   -38358.773          140          140          140
  270000    299.10789   -1181.3609    -37823.53          140          140          140
  271000     300.3548   -1057.1569     -37551.5          140          140          140
  272000    300.44493   -1243.6822   -37864.421          140          140          140
  273000    300.46589   -1379.1472   -38134.056          140          140          140
  274000    299.30767   -1287.0323   -37963.201          140          140          140
  275000    300.02621   -1012.4781   -37457.967          140          140          140
  276000    299.81687   -1235.7421   -37903.751          140          140          140
  277000    300.44341   -1324.8945   -37998.553          140          140          140
  278000    299.97057    -1325.619   -38030.179          140          140          140
  279000    299.85536   -1217.7842    -37796.72          140          140          140
  280000    299.58669   -1504.8645   -38315.769          140          140          140
  281000    299.82911   -1210.9614   -37830.645          140          140          140
  282000    299.83968   -1237.7106   -37848.488          140          140          140
  283000    299.84813   -1180.0553   -37756.841          140          140          140
  284000    299.82046   -1251.2152   -37886.705          140          140          140
  285000    299.76204   -1203.6001   -37821.313          140          140          140
  286000    299.66802    -1308.579   -37994.109          140          140          140
  287000     300.4376   -1225.9847   -37822.803          140          140          140
  288000    300.43587   -1077.9949   -37575.865          140          140          140
  289000    299.40798   -1259.8597   -37954.068          140          140          140
  290000    300.73068   -1267.4557   -37903.353          140          140          140
  291000     300.4298   -1537.5661   -38400.627          140          140          140
  292000    299.69969   -1313.9495   -38021.212          140          140          140
  293000    300.41402   -1273.7089   -37936.878          140          140          140
  294000    300.21524   -1336.4875   -38025.997          140          140          140
  295000    299.63813   -1307.6629   -37992.558          140          140          140
  296000    300.01623   -1191.0325   -37832.646          140          140          140
  297000     300.8818   -1248.9849   -37884.818          140          140          140
  298000      300.149   -1268.7168   -37976.258          140          140          140
  299000    299.78502     -1333.34    -38033.63          140          140          140
  300000    299.69048   -1660.1638   -38595.282          140          140          140
  301000    299.94179   -1281.6313   -37968.625          140          140          140
  302000     300.7854   -1450.3898   -38240.397          140          140          140
  303000    300.43741   -1218.2194   -37857.529          140          140          140
  304000    299.97749    -1092.409    -37628.35          140          140          140
  305000    299.79216   -1227.9067   -37874.757          140          140          140
  306000    299.31048   -1173.3757   -37799.894          140          140          140
  307000    300.21218    -1039.683   -37566.761          140          140          140
  308000    300.05648   -1165.0208   -37745.081          140          140          140
  309000    299.57747   -1447.6539   -38249.818          140          140          140
  310000    299.94243   -1544.7076   -38411.812          140          140          140
  311000    299.95941   -1233.2405   -37923.969          140          140          140
  312000    299.47853   -1471.2905   -38292.697          140          140          140
  313000    299.30514   -1200.4003   -37839.531          140          140          140
  314000    299.80323   -1260.8154   -37893.777          140          140          140
  315000    299.50327    -1293.926   -37981.355          140          140          140
  316000    299.80501   -1119.9571   -37704.522          140          140          140
  317000    299.73435   -1352.8309    -38096.91          140          140          140
  318000    299.64726   -1237.7914   -37910.277          140          140          140
  319000    300.57241   -1172.6251    -37774.36          140          140          140
  320000     300.1909   -1250.1281   -37929.032          140          140          140
  321000    300.84781   -1142.6343   -37710.974          140          140          140
  322000    300.16494   -1279.0619   -37947.642          140          140          140
  323000    299.23818    -1305.919   -38027.229          140          140          140
  324000    299.76495   -1294.8521   -37971.095          140          140          140
  325000    298.75136   -1432.2167   -38249.979          140          140          140
  326000    299.83968   -1383.1331   -38132.953          140          140          140
  327000    300.24067   -1221.4662   -37822.888          140          140          140
  328000    300.41734   -1259.2277   -37880.357          140          140          140
  329000    299.31019   -1185.6749    -37805.93          140          140          140
  330000     299.5098   -1433.3846   -38197.591          140          140          140
  331000    299.21207   -1351.0838   -38095.434          140          140          140
  332000    298.93977   -1167.4052   -37796.098          140          140          140
  333000    299.74047   -916.43135   -37321.964          140          140          140
  334000    299.47367   -1067.0812   -37614.832          140          140          140
  335000    300.56556   -1060.2566   -37573.199          140          140          140
  336000    300.26703    -1175.009   -37784.642          140          140          140
  337000    300.32924   -1211.8164   -37837.714          140          140          140
  338000    299.84121   -1293.5994   -38013.721          140          140          140
  339000    299.17749    -1138.311   -37705.603          140          140          140
  340000    300.80042   -1119.6036   -37651.025          140          140          140
  341000    299.71056   -1124.8735   -37672.824          140          140          140
  342000    300.10903   -1195.9842   -37804.044          140          140          140
  343000    300.44887   -1170.3356   -37724.262          140          140          140
  344000    299.27257   -1130.8545   -37702.128          140          140          140
  345000     299.2212   -1321.1188   -38042.558          140          140          140
  346000    299.71877   -1267.9101   -37905.334          140          140          140
  347000    300.05105   -1208.1428   -37865.522          140          140          140
  348000    300.06827     -1460.06   -38255.165          140          140          140
  349000    300.61526   -1207.1888   -37780.578          140          140          140
  350000    301.36718   -1072.7017   -37504.827          140          140          140
  351000    300.37773    -1108.892   -37704.377          140          140          140
  352000    299.78884   -1379.5693   -38121.414          140          140          140
  353000    300.01998    -1185.923   -37749.058          140          140          140
  354000    300.66416    -1123.653   -37654.197          140          140          140
  355000    300.08124   -1157.2781   -37698.337          140          140          140
  356000    301.05226    -986.6482   -37387.572          140          140          140
  357000    299.09254   -1300.4757   -37985.667          140          140          140
  358000    299.77236   -1280.1288   -37945.933          140          140          140
  359000    299.99959   -1357.6431   -38072.046          140          140          140
  360000     300.0413   -1015.7426   -37495.145          140          140          140
  361000    299.80697   -1216.5083   -37850.977          140          140          140
  362000    299.59521   -1331.4675   -38009.401          140          140          140
  363000    299.35601   -1313.2073   -38028.217          140          140          140
  364000    300.01072   -1095.1877   -37605.402          140          140          140
  365000    300.48252   -1025.1183   -37425.553          140          140          140
  366000    300.22145   -1229.9816   -37851.679          140          140          140
  367000    300.52128   -1364.4459   -38085.398          140          140          140
  368000    299.63228   -1326.2767    -38052.32          140          140          140
  369000    300.53577   -1148.1223   -37702.767          140          140          140
  370000    300.98615   -1186.9764   -37721.147          140          140          140
  371000    299.81736   -1203.0195   -37847.428          140          140          140
  372000    299.99554   -1185.8684   -37815.852          140          140          140
  373000    300.43969   -1327.0698   -38014.161          140          140          140
  374000    299.96121   -1197.3121   -37825.706          140          140          140
  375000    299.86173   -1268.2924   -37908.925          140          140          140
  376000     300.4549   -1181.8561    -37791.37          140          140          140
  377000    300.32084   -1346.6595   -38037.618          140          140          140
  378000    299.34389   -1478.5722   -38333.138          140          140          140
  379000    300.74968   -1467.6468   -38197.739          140          140          140
  380000    299.48975   -1234.1941   -37826.198          140          140          140
  381000    299.77037   -1064.6295   -37567.284          140          140          140
  382000    300.92319   -1155.5018   -37652.843          140          140          140
  383000     300.3121   -1260.8277   -37868.799          140          140          140
  384000    299.46667   -1280.8049   -37965.865          140          140          140
  385000     300.0901   -1257.2836   -37913.719          140          140          140
  386000    299.55447   -1028.7314   -37505.469          140          140          140
  387000    300.37353    -1349.752   -38042.765          140          140          140
  388000    300.38929   -1332.3811     -37977.8          140          140          140
  389000    299.80426   -1144.9266   -37697.128          140          140          140
  390000    299.45873   -1193.9538   -37754.434          140          140          140
  391000    300.13646   -1259.0437   -37845.155          140          140          140
  392000    299.60894   -1358.9525   -38063.554          140          140          140
  393000     300.3811    -939.6257   -37337.011          140          140          140
  394000    299.70418   -1251.7983   -37949.535          140          140          140
  395000    299.50956   -1042.3811   -37531.796          140          140          140
  396000    299.64111   -974.61651   -37398.315          140          140          140
  397000    300.24405   -1135.5248    -37646.42          140          140          140
  398000    299.25858   -1248.7886   -37896.087          140          140          140
  399000    301.11042   -1431.7048     -38141.1          140          140          140
  400000    299.59069   -1043.4377   -37548.564          140          140          140
  401000    299.68566   -1156.6295   -37752.389          140          140          140
  402000    300.67386   -1191.4566    -37807.51          140          140          140
  403000     299.7037   -1221.2424   -37868.749          140          140          140
  404000    300.72141   -1228.5723   -37799.841          140          140          140
  405000    300.68405   -1207.6755   -37799.488          140          140          140
  406000    299.91314   -1346.9339   -38082.093          140          140          140
  407000      300.688   -1214.1209   -37815.953          140          140          140
  408000    299.93842   -1247.3952   -37921.873          140          140          140
  409000    300.40733   -1094.1335   -37558.731          140          140          140
  410000    299.26272   -1308.4842   -38009.152          140          140          140
  411000    300.39464   -1382.7929     -38104.7          140          140          140
  412000    300.71729   -1316.3599   -37948.871          140          140          140
  413000    300.62628   -1304.9333   -37940.429          140          140          140
  414000    300.61619   -1343.6021   -38025.744          140          140          140
  415000    300.10392    -1359.499   -38084.754          140          140          140
  416000    299.67971   -1120.0365   -37656.498          140          140          140
  417000    299.56826    -1140.986   -37709.616          140          140          140
  418000    299.72336   -1271.1953   -37889.452          140          140          140
  419000    299.85419   -1386.4038   -38139.358          140          140          140
  420000    299.88892   -1380.0067   -38095.172          140          140          140
  421000    299.71779    -1240.887   -37872.088          140          140          140
  422000    299.53011   -1119.9303   -37692.013          140          140          140
  423000    300.24867   -1270.5159   -37925.057          140          140          140
  424000    299.54135   -1499.5716   -38280.589          140          140          140
  425000    299.90435   -1432.2807   -38193.214          140          140          140
  426000    299.21525   -1173.1538   -37813.345          140          140          140
  427000    300.25026   -1419.9872   -38176.729          140          140          140
  428000    299.93403   -1366.3391   -38133.273          140          140          140
  429000    299.96696   -1203.7695   -37846.255          140          140          140
  430000    299.80783   -1309.6322   -37999.615          140          140          140
  431000    299.79124   -1226.6424   -37823.412          140          140          140
  432000    299.49192   -1302.3634   -37975.251          140          140          140
  433000    299.37024   -1386.1321   -38151.731          140          140          140
  434000    299.98126   -1170.2951   -37781.719          140          140          140
  435000    299.94507    -1169.001   -37805.508          140          140          140
  436000    299.57099   -1323.1688   -38041.373          140          140          140
  437000    299.81618   -1147.4278   -37739.073          140          140          140
  438000    300.28112   -1503.5279   -38285.203          140          140          140
  439000    300.10936   -1176.3523   -37753.182          140          140          140
  440000    300.66624   -1375.6158   -38054.271          140          140          140
  441000    299.64988   -1419.4965   -38203.746          140          140          140
  442000    300.60264    -1297.542   -37960.684          140          140          140
  443000    300.30834    -1318.237   -37989.527          140          140          140
  444000    298.59856   -1322.8052   -38070.151          140          140          140
  445000    300.62232   -1337.5651   -38053.564          140          140          140
  446000    300.25862   -1213.1872   -37836.251          140          140          140
  447000    299.91038    -1143.924   -37718.959          140          140          140
  448000    300.18756   -1318.7111   -38028.701          140          140          140
  449000    300.17638   -1217.8477   -37823.667          140          140          140
  450000    299.55504   -1236.3478   -37856.658          140          140          140
  451000    300.31483   -1274.5971   -37902.149          140          140          140
  452000    300.46192   -1373.2408   -38052.041          140          140          140
  453000    299.80621    -1303.609   -37992.808          140          140          140
  454000    299.48763   -1237.1249   -37934.024          140          140          140
  455000     300.0386   -1368.6477   -38083.952          140          140          140
  456000    300.86382   -1166.8137   -37673.332          140          140          140
  457000    299.99714   -1265.0841   -37898.921          140          140          140
  458000    299.80102    -1459.895   -38256.307          140          140          140
  459000    300.88575   -1442.4391   -38155.351          140          140          140
  460000    299.56694   -1302.3824   -37984.374          140          140          140
  461000    300.65347   -1134.0179   -37667.662          140          140          140
  462000    300.46523    -1230.882   -37846.903          140          140          140
  463000    299.59631   -1189.8734   -37801.974          140          140          140
  464000    299.88273   -1083.6907   -37591.861          140          140          140
  465000    299.77157   -1216.3912   -37787.818          140          140          140
  466000    300.36177   -1271.8289   -37948.744          140          140          140
  467000    300.30386    -1401.147   -38143.529          140          140          140
  468000    300.50886   -1353.5782   -38044.301          140          140          140
  469000    299.90669    -1185.638   -37777.056          140          140          140
  470000    300.35759   -1288.6933   -37974.821          140          140          140
  471000     300.2954   -1226.2128   -37852.005          140          140          140
  472000    300.01139   -1315.6766   -37983.964          140          140          140
  473000    299.39523   -1338.5713   -38069.001          140          140          140
  474000    300.14048   -1169.3584    -37739.73          140          140          140
  475000    299.82693   -1145.6082   -37719.999          140          140          140
  476000    299.69203   -1334.4391   -38036.243          140          140          140
  477000    300.02377   -1262.7018   -37907.185          140          140          140
  478000    299.21725   -1176.3969   -37775.323          140          140          140
  479000    299.85577   -1390.1558   -38140.074          140          140          140
  480000    300.06021   -1256.8466   -37866.798          140          140          140
  481000     298.8511   -1141.9177   -37717.906          140          140          140
  482000    300.06089     -1071.38   -37559.581          140          140          140
  483000    300.43482   -1207.7781   -37812.483          140          140          140
  484000    299.99597    -1222.273   -37811.233          140          140          140
  485000    299.47689   -1167.7347   -37767.539          140          140          140
  486000    300.23749   -1246.0217   -37887.371          140          140          140
  487000    299.60995   -1098.9637    -37670.99          140          140          140
  488000    300.02679   -1136.1604    -37679.96          140          140          140
  489000    299.51711   -1394.3862   -38148.755          140          140          140
  490000    300.47274   -1321.1414   -38008.258          140          140          140
  491000    299.68456   -1280.5954   -37935.938          140          140          140
  492000    300.64546   -1421.6709   -38130.491          140          140          140
  493000    300.92318   -1340.6979   -38023.264          140          140          140
  494000    300.12674   -1224.2631    -37819.62          140          140          140
  495000    299.71587   -1172.4302   -37792.704          140          140          140
  496000    298.77615    -1266.226   -37952.535          140          140          140
  497000     300.6345   -1180.7578   -37728.315          140          140          140
  498000    299.75528   -1127.2775   -37654.172          140          140          140
  499000    299.74192   -1281.3552   -37947.849          140          140          140
  500000    299.79868   -1420.8472   -38157.675          140          140          140
  501000    300.89044   -1439.4575   -38163.552          140          140          140
  502000    299.86715   -1405.9988   -38154.421          140          140          140
  503000    300.95933   -1192.7773   -37763.653          140          140          140
  504000    299.45378   -1105.6154   -37642.122          140          140          140
  505000    300.23032   -1234.5539   -37862.759          140          140          140
  506000    299.29129     -1170.09   -37792.044          140          140          140
  507000    299.93936   -1127.8068   -37649.239          140          140          140
  508000    300.69421    -1380.387   -38096.153          140          140          140
  509000    299.28373   -1410.5578   -38170.592          140          140          140
  510000    300.34417   -1163.9178   -37706.317          140          140          140
  511000    299.74929   -1348.2498   -38061.625          140          140          140
  512000     299.2958   -1228.8475   -37875.176          140          140          140
  513000    300.60665   -1248.2243   -37877.044          140          140          140
  514000    299.95605   -1272.0675   -37940.416          140          140          140
  515000    299.80252    -1499.323   -38273.288          140          140          140
  516000    300.60269   -1178.6938   -37773.401          140          140          140
  517000    299.83532   -1177.4878   -37782.847          140          140          140
  518000    300.21169   -1016.9339    -37481.72          140          140          140
  519000    300.16009   -1412.7864   -38140.719          140          140          140
  520000    300.14094   -1339.8691   -38079.057          140          140          140
  521000    300.26063   -1236.2025   -37840.385          140          140          140
  522000    299.96482   -1259.4185   -37886.183          140          140          140
  523000     299.6333   -1174.2978   -37790.193          140          140          140
  524000    299.86735   -1194.2422   -37784.672          140          140          140
  525000    300.48338   -1243.8807   -37827.759          140          140          140
  526000    299.57749   -1211.3348   -37836.739          140          140          140
  527000    300.54506   -1298.7857   -37928.186          140          140          140
  528000    301.11893   -1307.8042   -37920.611          140          140          140
  529000    300.60667   -1305.1985   -37964.722          140          140          140
  530000    300.41687   -1080.0341   -37553.008          140          140          140
  531000    300.24882    -1126.195   -37664.897          140          140          140
  532000    299.50862   -1313.2693   -38021.345          140          140          140
  533000    300.02402   -1081.0635   -37617.393          140          140          140
  534000    299.81369   -1112.8306   -37635.523          140          140          140
  535000    299.59885   -1407.1895   -38155.736          140          140          140
  536000    299.68506   -1362.8198   -38094.745          140          140          140
  537000    300.25329   -1182.4254    -37776.41          140          140          140
  538000    300.35614    -1224.535   -37846.862          140          140          140
  539000    300.17311   -1270.2986   -37903.797          140          140          140
  540000    299.62704   -1094.2685   -37624.812          140          140          140
  541000    299.51396   -1201.0079   -37811.418          140          140          140
  542000    299.82033   -1209.9295   -37837.842          140          140          140
  543000    299.94146   -1235.1108   -37848.829          140          140          140
  544000    299.41793   -1275.1636   -37942.248          140          140          140
  545000    300.62433   -1194.3641   -37758.731          140          140          140
  546000    299.69237   -1173.1373   -37793.831          140          140          140
  547000    300.05969   -1381.2132   -38129.026          140          140          140
  548000    299.60356   -1282.0769   -37957.514          140          140          140
  549000    300.75833   -1155.2021     -37695.6          140          140          140
  550000    299.85149   -1219.6141   -37876.488          140          140          140
  551000    299.13055   -1304.6198    -38022.65          140          140          140
  552000    300.10463   -1171.7343   -37760.089          140          140          140
  553000     299.9044   -1300.1368   -38003.697          140          140          140
  554000     299.6133   -1224.5327   -37895.278          140          140          140
  555000    300.38349        -1166    -37732.82          140          140          140
  556000    299.83143   -1070.0991   -37619.144          140          140          140
  557000    299.25206   -1337.3131   -38096.631          140          140          140
  558000    299.90652   -1267.8836    -37927.22          140          140          140
  559000    299.54936   -1224.4003    -37812.19          140          140          140
  560000     300.3268   -1235.9248   -37853.664          140          140          140
  561000    299.97176   -1300.7881   -37953.198          140          140          140
  562000    299.66612   -1338.3358   -38098.812          140          140          140
  563000     299.7025   -1264.6582   -37895.779          140          140          140
  564000    300.11029   -1164.0789   -37732.253          140          140          140
  565000    299.97537   -1346.4789   -38015.839          140          140          140
  566000    299.76093   -1183.8084   -37793.406          140          140          140
  567000    298.92893   -1119.1537   -37696.744          140          140          140
  568000    300.69884   -1326.0169   -38011.677          140          140          140
  569000    299.65356   -1425.1689   -38192.011          140          140          140
  570000    299.49275   -1268.9312   -37925.231          140          140          140
  571000    300.03919   -1219.8284   -37873.043          140          140          140
  572000    300.24881   -1469.9999   -38243.063          140          140          140
  573000    299.55522    -1344.531   -38107.458          140          140          140
  574000     300.4088   -1289.7519   -37916.284          140          140          140
  575000    300.43666   -1183.4804   -37779.166          140          140          140
  576000    299.67787    -1212.993   -37801.425          140          140          140
  577000     301.0643    -1125.309   -37660.064          140          140          140
  578000    300.12441   -1192.3104   -37780.319          140          140          140
  579000    300.90422   -1147.8839    -37671.43          140          140          140
  580000    300.49493   -1106.8687   -37602.247          140          140          140
  581000    300.42582   -1238.9565   -37845.077          140          140          140
  582000    300.61452   -1340.5999   -37997.461          140          140          140
  583000    299.14956   -1224.5961   -37854.392          140          140          140
  584000    300.44945   -1268.5597   -37881.082          140          140          140
  585000    300.00042   -1122.2362   -37678.139          140          140          140
  586000    299.43929    -1342.907   -38079.558          140          140          140
  587000    299.57874   -1380.2993   -38124.768          140          140          140
  588000    300.08414   -1165.4159   -37770.467          140          140          140
  589000    300.58307   -1124.6133   -37653.552          140          140          140
  590000    300.21725   -1138.9378   -37741.149          140          140          140
  591000     299.9145   -1380.4138   -38116.141          140          140          140
  592000    300.16012   -1366.9113   -38059.837          140          140          140
  593000    300.04914    -1215.103   -37858.802          140          140          140
  594000    300.13033   -1236.8005   -37879.236          140          140          140
  595000      299.846   -1415.1665   -38147.549          140          140          140
  596000    300.10074   -1119.0989   -37628.314          140          140          140
  597000    298.90869   -1191.0153   -37808.464          140          140          140
  598000    300.09708   -1374.9314   -38063.701          140          140          140
  599000    299.85733   -1135.5098   -37711.865          140          140          140
  600000    300.23861    -1102.064   -37634.126          140          140          140
  601000    300.47417   -1340.5255   -38051.889          140          140          140
  602000    299.61535   -1422.3085   -38204.677          140          140          140
  603000    300.66124   -1278.2638   -37908.943          140          140          140
  604000    300.05679   -1344.0574   -38056.997          140          140          140
  605000    300.16326   -1558.5941   -38383.553          140          140          140
  606000    299.57204   -1370.9444   -38096.489          140          140          140
  607000    300.02267   -1156.1489   -37778.097          140          140          140
  608000    299.28725   -1371.3184   -38161.922          140          140          140
  609000    299.99316   -1150.7613   -37681.891          140          140          140
  610000    300.31866   -1235.8647   -37847.606          140          140          140
  611000    299.99829   -1035.0972   -37546.198          140          140          140
  612000    299.72704   -1366.7209   -38127.775          140          140          140
  613000    299.85393   -1334.5923   -38061.728          140          140          140
  614000    299.75514   -1219.8696   -37852.417          140          140          140
  615000    300.07044   -1088.9564   -37599.741          140          140          140
  616000    300.25935   -1260.8596   -37940.875          140          140          140
  617000     300.2023   -1252.6273   -37899.945          140          140          140
  618000    300.54586   -1301.4741   -37947.619          140          140          140
  619000    300.37557   -1361.4501   -38096.046          140          140          140
  620000    299.35136   -1239.6925   -37866.282          140          140          140
  621000    299.95571   -1264.7142   -37974.327          140          140          140
  622000    300.36227   -1142.9555   -37720.037          140          140          140
  623000    300.12192   -1291.8166   -37970.857          140          140          140
  624000    300.55375   -1092.0012   -37602.037          140          140          140
  625000    299.44733   -1292.3299     -37964.5          140          140          140
  626000    299.66524   -1394.8035   -38181.572          140          140          140
  627000    299.76786   -1480.2266    -38335.28          140          140          140
  628000    300.20727    -1308.825   -38008.107          140          140          140
  629000    300.03426   -1065.3305   -37532.894          140          140          140
  630000     300.1693     -1268.35   -37935.046          140          140          140
  631000    300.62334   -1241.2274   -37840.925          140          140          140
  632000    299.89311   -1312.3301    -37993.15          140          140          140
  633000    299.56636   -1236.1611   -37862.557          140          140          140
  634000    299.15163   -1294.8051   -38024.332          140          140          140
  635000    300.04281   -1110.7831   -37646.721          140          140          140
  636000    299.94832   -1360.2155   -38080.121          140          140          140
  637000    300.52197   -1282.9464   -37922.872          140          140          140
  638000    299.67992   -1234.2009   -37868.537          140          140          140
  639000     300.2708   -1369.9388    -38079.49          140          140          140
  640000    299.39527   -1130.8869   -37695.271          140          140          140
  641000    300.04476   -1257.1261   -37911.308          140          140          140
  642000    300.03163   -1443.2832   -38231.392          140          140          140
  643000    299.45094   -1244.6004   -37868.072          140          140          140
  644000    300.02916   -1011.9128   -37490.697          140          140          140
  645000    300.00333   -1225.7108   -37877.991          140          140          140
  646000    299.59835   -1113.1739   -37662.562          140          140          140
  647000     300.4426   -1187.9765   -37766.236          140          140          140
  648000    300.07504   -1242.2559   -37860.469          140          140          140
  649000     300.2909   -1267.5034   -37889.224          140          140          140
  650000    299.64855   -1318.3874   -38008.913          140          140          140
  651000    299.65139   -1215.7327   -37842.964          140          140          140
  652000    299.67066   -1232.2245   -37893.152          140          140          140
  653000    300.69036   -1272.1572   -37872.572          140          140          140
  654000    300.25715   -1287.8899   -37959.544          140          140          140
  655000    300.55944   -1196.8258   -37791.709          140          140          140
  656000    300.14499   -1182.4392   -37782.285          140          140          140
  657000    300.45652   -1386.7386   -38086.977          140          140          140
  658000    300.12763   -1382.9559   -38095.583          140          140          140
  659000    299.61498   -1184.2048   -37794.439          140          140          140
  660000    299.83003   -1326.6428   -38040.855          140          140          140
  661000      299.603   -1257.1447    -37912.55          140          140          140
  662000    300.52981   -1282.9322   -37926.492          140          140          140
  663000    300.36341   -1337.2505   -38008.754          140          140          140
  664000    300.13923   -1340.3778     -38028.7          140          140          140
  665000    300.20276   -1296.1157   -37963.673          140          140          140
  666000    299.38356   -1247.0842   -37912.916          140          140          140
  667000    299.96487    -1266.963   -37945.583          140          140          140
  668000    300.51346   -1293.1461   -37967.155          140          140          140
  669000    299.74287    -1283.378   -38005.674          140          140          140
  670000    299.90012   -1338.6373   -38087.152          140          140          140
  671000    300.36834   -1149.1301   -37728.637          140          140          140
  672000    300.06207   -1209.1163   -37783.249          140          140          140
  673000     298.8719   -1203.1392   -37830.568          140          140          140
  674000    299.64537   -1271.4345   -37920.357          140          140          140
  675000    299.38121   -1250.1283   -37877.007          140          140          140
  676000    300.85551   -1117.8545   -37596.823          140          140          140
  677000      299.483   -1130.3225   -37690.513          140          140          140
  678000    300.46499   -1189.4332   -37772.063          140          140          140
  679000    300.02744   -1339.1273   -38029.901          140          140          140
  680000    299.58128   -1371.1757   -38124.908          140          140          140
  681000    300.77447   -1098.6842    -37631.73          140          140          140
  682000    300.46921   -1148.9041   -37729.219          140          140          140
  683000    301.15905   -1155.3439   -37681.836          140          140          140
  684000    300.05518   -1272.2952   -37928.908          140          140          140
  685000    298.79652   -1348.6242   -38089.428          140          140          140
  686000    300.16595   -1140.2212   -37684.391          140          140          140
  687000    299.93654   -1139.3946    -37665.36          140          140          140
  688000    300.01425   -1170.8181   -37762.491          140          140          140
  689000    300.59612   -1483.2998   -38282.905          140          140          140
  690000     299.1204   -1344.9967     -38061.8          140          140          140
  691000    299.86221    -1308.961    -37982.78          140          140          140
  692000    299.69094   -1200.0806   -37841.869          140          140          140
  693000    300.39835   -1358.2181   -38070.635          140          140          140
  694000    299.83773   -1367.9303   -38115.066          140          140          140
  695000    299.48491   -1477.9803   -38272.038          140          140          140
  696000     299.7572   -1452.7034   -38261.356          140          140          140
  697000    300.40825   -1131.7347   -37669.405          140          140          140
  698000    300.06248   -1206.3285   -37834.233          140          140          140
  699000    300.32661   -1331.5594   -38031.421          140          140          140
  700000    300.77098   -1349.0291   -38050.955          140          140          140
  701000    301.08755   -965.00481   -37373.134          140          140          140
  702000     300.8421   -1125.4164   -37667.366          140          140          140
  703000    300.40193   -1063.4259   -37549.599          140          140          140
  704000    299.68061   -1247.4092   -37918.553          140          140          140
  705000    300.10936   -1267.7274   -37908.209          140          140          140
  706000    300.35436   -1229.7492   -37831.051          140          140          140
  707000    300.04576   -1200.5499    -37801.41          140          140          140
  708000    299.76664   -1179.0062   -37779.515          140          140          140
  709000    300.14902    -1084.822   -37607.393          140          140          140
  710000    299.95104   -1171.0757   -37764.715          140          140          140
  711000    300.59113   -1187.4895   -37775.902          140          140          140
  712000    299.50028   -1183.8967   -37774.729          140          140          140
  713000    299.74317   -1416.2549   -38176.502          140          140          140
  714000    300.18606   -1109.7002   -37658.733          140          140          140
  715000    300.31335   -1102.9317   -37620.615          140          140          140
  716000    299.98449   -1308.3627   -38007.813          140          140          140
  717000    299.97918   -1422.2675   -38224.663          140          140          140
  718000    299.88762   -1435.6719   -38232.621          140          140          140
  719000    300.27159   -1387.7853   -38130.757          140          140          140
  720000    299.78614    -1270.976   -37945.045          140          140          140
  721000    299.27105   -1311.9005   -38049.508          140          140          140
  722000    300.26574   -1282.1526   -37964.364          140          140          140
  723000    299.67798   -1581.1842    -38461.02          140          140          140
  724000    300.25488   -1273.9944   -37941.051          140          140          140
  725000    299.42128   -1395.1347   -38203.305          140          140          140
  726000    300.54507   -1324.7291   -38040.049          140          140          140
  727000    300.37602   -1111.0475   -37674.922          140          140          140
  728000    299.72385   -1046.9133   -37567.157          140          140          140
  729000    300.19283   -1283.9082   -37937.279          140          140          140
  730000     299.6604   -1212.9506   -37845.696          140          140          140
  731000    299.99499   -1260.5913    -37936.49          140          140          140
  732000    300.31614   -1287.2509   -37962.184          140          140          140
  733000    300.10882   -1424.3397   -38218.143          140          140          140
  734000    299.06803   -1467.2386   -38313.218          140          140          140
  735000    300.13769   -1380.5211     -38139.2          140          140          140
  736000    300.35286   -1397.6089   -38208.542          140          140          140
  737000    300.23284   -1359.8857   -38067.548          140          140          140
  738000    299.86175   -1436.6425   -38244.177          140          140          140
  739000    299.80522   -1351.3576   -38075.254          140          140          140
  740000    299.32358   -1310.4432   -38052.984          140          140          140
  741000    299.79383   -1304.5842    -38022.56          140          140          140
  742000    299.83053   -1440.4682   -38253.472          140          140          140
  743000    300.47399   -1208.0642   -37846.619          140          140          140
  744000    300.33891   -867.05622   -37265.436          140          140          140
  745000    300.15288   -1052.6015    -37537.73          140          140          140
  746000    300.66075   -1411.1212     -38133.9          140          140          140
  747000    298.88342   -1248.7423   -37918.074          140          140          140
  748000    300.11629   -1258.2012   -37904.795          140          140          140
  749000    299.39013   -1195.5895   -37871.836          140          140          140
  750000    300.02766   -1387.6215    -38136.86          140          140          140
  751000    299.94595   -1386.1569   -38115.007          140          140          140
  752000    300.11996   -1228.4263   -37805.159          140          140          140
  753000    299.82982   -1233.7967   -37862.121          140          140          140
  754000    299.79753     -1351.88   -38034.156          140          140          140
  755000    300.08796    -1323.737   -37977.224          140          140          140
  756000    299.12638   -1267.3583   -37955.192          140          140          140
  757000    299.59482   -1214.1973   -37818.133          140          140          140
  758000    299.76715   -1157.5564   -37753.836          140          140          140
  759000     299.8199   -1311.7174   -37968.847          140          140          140
  760000    300.93209   -1428.0352   -38153.781          140          140          140
  761000    300.31733   -1314.7203   -37987.379          140          140          140
  762000    299.61512   -1272.5295    -37984.15          140          140          140
  763000    299.77293   -1175.5206   -37747.569          140          140          140
  764000    299.31171   -1270.4594   -37996.827          140          140          140
  765000    299.67918   -1228.6996   -37907.893          140          140          140
  766000    300.43181    -1269.316   -37913.459          140          140          140
  767000    299.39925   -1131.2918   -37731.913          140          140          140
  768000    299.39996   -1181.5737   -37792.988          140          140          140
  769000    300.78792   -1248.7667   -37867.353          140          140          140
  770000    299.73961   -1351.3389   -38122.645          140          140          140
  771000    299.39805   -1200.8563   -37802.878          140          140          140
  772000    298.82912   -1419.7501   -38203.218          140          140          140
  773000    299.91117   -1225.6691   -37811.643          140          140          140
  774000    299.80453   -1136.0515   -37716.251          140          140          140
  775000    299.43161   -1289.1188   -37999.284          140          140          140
  776000    299.56451   -1299.0047   -37984.092          140          140          140
  777000    299.71251   -1142.2104   -37706.148          140          140          140
  778000    300.11988   -1203.7449   -37796.187          140          140          140
  779000    300.72584   -1281.4588   -37895.299          140          140          140
  780000    300.40132   -1187.8528   -37772.922          140          140          140
  781000    300.55261   -1211.4773   -37814.959          140          140          140
  782000    300.48573   -1252.9916    -37883.09          140          140          140
  783000    299.80908   -1317.7088   -38077.243          140          140          140
  784000    299.51713   -1501.3595   -38345.162          140          140          140
  785000     300.2892   -1429.9414   -38194.826          140          140          140
  786000     300.0227   -1304.5148   -38002.022          140          140          140
  787000    300.79802   -1364.6508   -38085.446          140          140          140
  788000    300.03613   -1155.5258   -37695.425          140          140          140
  789000    300.04284    -1122.194   -37634.135          140          140          140
  790000    300.27126   -1222.8066   -37827.713          140          140          140
  791000    300.12138   -1252.3439   -37910.501          140          140          140
  792000    299.43288   -1355.3613   -38068.802          140          140          140
  793000    300.03068   -1186.6271   -37792.142          140          140          140
  794000    299.72182   -1188.8232   -37798.533          140          140          140
  795000    300.50879   -1264.5702     -37893.2          140          140          140
  796000    299.61889   -1347.3585   -38104.526          140          140          140
  797000    300.28067   -1209.7464   -37813.622          140          140          140
  798000    300.42176   -1251.6658    -37892.54          140          140          140
  799000    300.49599   -1197.3802   -37789.634          140          140          140
  800000    299.45804   -1250.6433   -37932.121          140          140          140
  801000    299.73865   -1048.8813   -37573.722          140          140          140
  802000    300.13296   -1058.8026   -37566.629          140          140          140
  803000    299.21503   -1467.4294   -38308.888          140          140          140
  804000    300.27915   -1157.6144   -37716.657          140          140          140
  805000    299.05351   -1242.3909   -37914.533          140          140          140
  806000    299.41082   -1212.7681   -37861.079          140          140          140
  807000    299.62111   -1261.6955   -37881.509          140          140          140
  808000    300.95269   -1266.8481   -37900.036          140          140          140
  809000    300.21877    -1317.373   -38020.534          140          140          140
  810000    299.13896    -1186.311   -37778.046          140          140          140
  811000    299.26088   -1410.2255   -38198.117          140          140          140
  812000     299.5799   -1398.3137   -38140.682          140          140          140
  813000    300.38294   -1098.1143   -37584.881          140          140          140
  814000    299.47949   -1258.2644   -37905.124          140          140          140
  815000    300.26219    -977.0386   -37398.272          140          140          140
  816000    299.95341    -1191.473    -37816.28          140          140          140
  817000    300.13433   -1267.2883   -37939.297          140          140          140
  818000    299.84668   -1134.6526   -37710.876          140          140          140
  819000    299.94794   -1344.8701   -38034.086          140          140          140
  820000    299.47833   -1338.1953   -38027.622          140          140          140
  821000    299.71595   -1254.0742   -37840.722          140          140          140
  822000    299.84052   -1133.6985    -37690.41          140          140          140
  823000    300.87126   -1368.1166   -38067.915          140          140          140
  824000    299.82396   -1278.0276   -37930.424          140          140          140
  825000    300.44355   -1325.9949   -38010.096          140          140          140
  826000    299.58759   -1180.6791    -37815.98          140          140          140
  827000    300.93348    -1174.537    -37746.42          140          140          140
  828000    299.07319   -1259.3337   -37915.084          140          140          140
  829000    300.82212   -1337.7636   -38034.983          140          140          140
  830000    299.68225   -1183.0077   -37777.036          140          140          140
  831000     298.9192    -1225.182   -37887.581          140          140          140
  832000    300.54555   -1218.6458   -37801.141          140          140          140
  833000    299.82368   -1182.4009   -37739.042          140          140          140
  834000    299.24858    -1404.868   -38183.987          140          140          140
  835000    300.19984   -1374.9353   -38090.441          140          140          140
  836000    300.36519   -1417.1866   -38117.709          140          140          140
  837000    299.84691   -1470.2658   -38259.188          140          140          140
  838000        299.9   -1269.6483   -37937.354          140          140          140
  839000    300.32281   -1178.9512   -37789.418          140          140          140
  840000     300.9252   -1148.4005   -37709.186          140          140          140
  841000    299.67393   -1303.5223   -38007.335          140          140          140
  842000    299.99371   -1198.1409   -37756.204          140          140          140
[...]
  800000    300.68063    1.5556866   -36052.883      137.388      137.388      137.388
  801000    300.23496    192.72183   -35760.289     137.4342     137.4342     137.4342
  802000    299.89582    144.29835   -35866.283    137.34821    137.34821    137.34821
  803000    299.90924   -18.186212   -36121.092    137.42225    137.42225    137.42225
  804000    301.06451   -31.111558   -36078.191    137.44275    137.44275    137.44275
  805000    300.16972    206.96497   -35746.654    137.43332    137.43332    137.43332
  806000    300.13809   -49.683556   -36164.045    137.47578    137.47578    137.47578
  807000    300.13262    30.349708   -36069.367     137.4405     137.4405     137.4405
  808000    299.45801   -118.56704   -36314.184    137.44729    137.44729    137.44729
  809000    299.84156   -114.86802    -36254.03    137.45074    137.45074    137.45074
  810000    299.61166    13.374099   -36090.862    137.47223    137.47223    137.47223
  811000     299.8546   -149.95144   -36373.699    137.48146    137.48146    137.48146
  812000     299.4656    84.067243   -36035.489     137.4745     137.4745     137.4745
  813000    300.84278    111.76814   -35882.634    137.47907    137.47907    137.47907
  814000    299.36594   -189.92612    -36442.93    137.45979    137.45979    137.45979
  815000    300.73153   -198.67531   -36404.685    137.42396    137.42396    137.42396
  816000    299.40777   -68.046332    -36231.15    137.39766    137.39766    137.39766
  817000    300.47828    7.7164234   -36114.165    137.43234    137.43234    137.43234
  818000    299.41621   -11.144723   -36149.073    137.41758    137.41758    137.41758
  819000    300.78959   -97.258142   -36259.284    137.45664    137.45664    137.45664
  820000    300.22258   -104.53779   -36229.824    137.47362    137.47362    137.47362
  821000    299.84257    82.691074   -35965.641     137.4746     137.4746     137.4746
  822000    299.74038    62.361848   -36013.696    137.42232    137.42232    137.42232
  823000    299.70611    -194.6379   -36441.425    137.46659    137.46659    137.46659
  824000    299.82796   -307.40637   -36599.013    137.40264    137.40264    137.40264
  825000    299.54389   -115.10187   -36299.683     137.3901     137.3901     137.3901
  826000    300.36953   -110.85616   -36276.004    137.45155    137.45155    137.45155
  827000    299.25141   -138.84177   -36349.297    137.39889    137.39889    137.39889
  828000    299.91172    62.078189   -36024.642     137.4108     137.4108     137.4108
  829000    300.16478    70.552668   -35987.359    137.40814    137.40814    137.40814
  830000    300.29249    123.61993   -35872.805     137.3636     137.3636     137.3636
  831000     300.8141   -55.088192   -36144.404    137.39062    137.39062    137.39062
  832000    299.69015    36.506166   -36075.663    137.39856    137.39856    137.39856
  833000    299.49757    12.245619   -36078.648    137.40933    137.40933    137.40933
  834000    300.06257   -25.526261   -36162.459    137.44435    137.44435    137.44435
  835000     299.8956   -55.894152   -36209.461    137.48171    137.48171    137.48171
  836000    299.99498    226.81465   -35735.504    137.49196    137.49196    137.49196
  837000    299.91947    260.08448    -35735.26    137.42824    137.42824    137.42824
  838000    300.16742    165.55332   -35856.458    137.39575    137.39575    137.39575
  839000    299.71704    71.210201   -36054.427    137.41811    137.41811    137.41811
  840000    299.87432   -59.096542   -36242.568    137.44483    137.44483    137.44483
  841000     299.8988    123.08672    -35883.62    137.37003    137.37003    137.37003
  842000    299.67023    94.707017   -35973.257     137.4143     137.4143     137.4143
  843000    300.61456    122.47428   -35872.273    137.44105    137.44105    137.44105
  844000    300.40892   -38.140853   -36124.795     137.4669     137.4669     137.4669
  845000    300.56071   -9.7384013   -36072.987    137.45066    137.45066    137.45066
  846000    300.14738    266.23572   -35635.551    137.40541    137.40541    137.40541
  847000    299.47989    236.75932   -35721.421    137.43177    137.43177    137.43177
  848000    299.10562   -23.927937   -36127.966    137.44205    137.44205    137.44205
  849000    299.90812   -15.809575   -36128.888    137.35337    137.35337    137.35337
  850000    300.30573   -89.155671   -36224.731    137.39327    137.39327    137.39327
  851000    300.10319     113.9834   -35907.335    137.34834    137.34834    137.34834
  852000    300.25359   -23.590134   -36135.529    137.47469    137.47469    137.47469
  853000    299.66788    11.076606   -36100.221     137.4313     137.4313     137.4313
  854000    299.69191    -181.4503   -36407.647    137.46893    137.46893    137.46893
  855000    300.27713   -81.506544   -36226.834    137.41485    137.41485    137.41485
  856000     299.5439    71.604436   -35984.224    137.40895    137.40895    137.40895
  857000     300.3617    25.839117   -36055.159    137.40557    137.40557    137.40557
  858000     299.8104   -71.562312   -36232.973    137.37762    137.37762    137.37762
  859000    299.21157   -11.339869   -36189.961    137.44266    137.44266    137.44266
  860000    300.12478    34.528266   -36069.554    137.38912    137.38912    137.38912
  861000    301.40157     116.2702   -35895.377    137.39975    137.39975    137.39975
  862000    298.77951     52.84221   -36059.358    137.43215    137.43215    137.43215
  863000     300.5175    124.05975   -35878.144    137.46904    137.46904    137.46904
  864000    300.23244    95.272344   -35920.526    137.45267    137.45267    137.45267
  865000    300.29347   -81.352656   -36204.701    137.46851    137.46851    137.46851
  866000    299.77486   -158.35628   -36390.742     137.4351     137.4351     137.4351
  867000    299.69283    53.080562   -36018.744    137.39107    137.39107    137.39107
  868000    298.86484   -52.678327   -36228.073    137.42098    137.42098    137.42098
  869000    299.92192   -53.859243   -36186.875    137.39801    137.39801    137.39801
  870000     299.8386   -195.64469   -36453.274    137.46829    137.46829    137.46829
  871000    299.66881   -9.9601246   -36154.844     137.4394     137.4394     137.4394
  872000    300.06868    39.385559   -36057.016    137.42583    137.42583    137.42583
  873000     299.2227    -112.0822   -36351.149    137.46918    137.46918    137.46918
  874000    300.76901    76.126088   -35985.559    137.44107    137.44107    137.44107
  875000    299.66604    79.369495   -36023.165     137.3753     137.3753     137.3753
  876000    299.89741    29.149425    -36064.96    137.41471    137.41471    137.41471
  877000    300.67583   -6.7940102   -36065.421    137.45172    137.45172    137.45172
  878000    299.71906   -270.57987   -36548.386    137.43355    137.43355    137.43355
  879000    299.77601   0.57741302   -36129.076    137.33473    137.33473    137.33473
  880000    299.82443    21.093674    -36021.14    137.40626    137.40626    137.40626
  881000    299.50897    -76.71549   -36211.258    137.42345    137.42345    137.42345
  882000    299.89161   -143.40071   -36341.116     137.4265     137.4265     137.4265
  883000    300.22746   -126.24837   -36307.956    137.37836    137.37836    137.37836
  884000    300.51582    187.24816   -35758.152     137.3826     137.3826     137.3826
  885000    299.77999   -85.228624   -36187.117    137.44071    137.44071    137.44071
  886000    300.31632   -144.83811   -36293.408    137.42972    137.42972    137.42972
  887000    299.73089    27.374978    -36031.78    137.43853    137.43853    137.43853
  888000     300.0392    167.32751   -35810.614    137.46474    137.46474    137.46474
  889000    300.35328    54.388361   -35993.157    137.38158    137.38158    137.38158
  890000    300.82342   -12.297625   -36122.266    137.42014    137.42014    137.42014
  891000    299.86844    65.233393   -36032.413    137.33258    137.33258    137.33258
  892000    299.23209   -58.492807   -36191.168    137.41728    137.41728    137.41728
  893000    299.69164    -85.92713   -36221.217    137.45677    137.45677    137.45677
  894000    300.20959   -106.07283   -36246.289    137.42063    137.42063    137.42063
  895000    300.46194   -89.296985   -36207.512    137.40283    137.40283    137.40283
  896000    299.83023   -98.451392   -36256.401    137.43201    137.43201    137.43201
  897000    300.58728    114.57352   -35872.382    137.48053    137.48053    137.48053
  898000    299.14197    86.026558   -35982.135    137.43696    137.43696    137.43696
  899000    299.85546   -60.581111   -36177.272    137.50431    137.50431    137.50431
  900000     300.2586    23.764804   -36049.663    137.45895    137.45895    137.45895
  901000    300.29672   -231.66988   -36464.073    137.43906    137.43906    137.43906
  902000    299.63879   -224.71309   -36456.395     137.4968     137.4968     137.4968
  903000    299.59688   -74.011629   -36239.663    137.47067    137.47067    137.47067
  904000    300.79682   -4.0918803   -36047.445    137.46961    137.46961    137.46961
  905000    299.47936    12.729936   -36044.467    137.50668    137.50668    137.50668
  906000     299.8306    94.926087    -35980.09    137.38938    137.38938    137.38938
  907000     299.3977    70.745589   -35973.765    137.47444    137.47444    137.47444
  908000     300.3733   -61.580169   -36172.384    137.48598    137.48598    137.48598
  909000    300.23595   -14.320039   -36117.991    137.42576    137.42576    137.42576
  910000    299.33925   -108.97827   -36295.375    137.44771    137.44771    137.44771
  911000    300.61131    55.464252   -35954.352    137.42048    137.42048    137.42048
  912000    299.57058   -44.494101   -36191.618    137.44796    137.44796    137.44796
  913000    299.96259   -34.448171   -36155.572    137.49384    137.49384    137.49384
  914000    300.06587    75.482858   -35964.201     137.4336     137.4336     137.4336
  915000    299.87744     83.04218    -35968.13     137.4794     137.4794     137.4794
  916000    299.29512    129.26377   -35938.025    137.43504    137.43504    137.43504
  917000    300.30881    1.7110279   -36048.539    137.43575    137.43575    137.43575
  918000    299.85742  -0.37284763   -36085.518    137.43862    137.43862    137.43862
  919000    299.65682    7.3011736   -36092.368     137.4473     137.4473     137.4473
  920000    299.94198   -232.92448   -36480.329    137.44211    137.44211    137.44211
  921000    300.20904   -255.74929   -36527.917    137.44646    137.44646    137.44646
  922000    300.10641   -23.255688   -36119.616     137.4366     137.4366     137.4366
  923000    300.76613    -16.65089   -36087.714    137.43556    137.43556    137.43556
  924000    299.97313    -154.3433   -36335.272    137.42034    137.42034    137.42034
  925000    300.28198     231.7992   -35660.584    137.36446    137.36446    137.36446
  926000    299.83886    110.07538   -35930.027    137.41396    137.41396    137.41396
  927000    300.31103    123.50505   -35863.351    137.43302    137.43302    137.43302
  928000    300.70515   -7.6507375   -36106.377    137.48172    137.48172    137.48172
  929000    299.86939   -39.718417   -36172.084    137.39592    137.39592    137.39592
  930000    300.01816    180.71459   -35812.267    137.39686    137.39686    137.39686
  931000    300.24068    228.21763   -35753.585    137.39533    137.39533    137.39533
  932000    300.30774   -55.954816   -36181.855    137.45514    137.45514    137.45514
  933000    300.15736   -120.12649   -36282.895     137.4551     137.4551     137.4551
  934000    299.58117    -29.93939   -36159.527    137.44615    137.44615    137.44615
  935000     299.9316    54.166533   -35999.489    137.41769    137.41769    137.41769
  936000    300.33799    221.48549   -35756.938    137.44939    137.44939    137.44939
  937000    300.34154   -83.295855   -36207.661    137.39285    137.39285    137.39285
  938000    300.00868   -113.24321   -36300.483    137.45706    137.45706    137.45706
  939000    300.44584     -125.676   -36273.408    137.42187    137.42187    137.42187
  940000    299.38086    -2.229355   -36129.097    137.42993    137.42993    137.42993
  941000    299.78496   -37.963062   -36155.466     137.3902     137.3902     137.3902
  942000    299.54295    201.16359   -35820.306     137.4587     137.4587     137.4587
  943000    300.37141    119.34236   -35870.271    137.38198    137.38198    137.38198
  944000    300.37882    174.83329   -35811.022    137.46081    137.46081    137.46081
  945000    298.71703    110.21144   -35974.313     137.4569     137.4569     137.4569
  946000    300.05948   -42.816405   -36184.769    137.40992    137.40992    137.40992
  947000    300.48313   -152.87314   -36337.523    137.44307    137.44307    137.44307
  948000    299.66755    -7.780979   -36136.079    137.36046    137.36046    137.36046
  949000    299.75181   -61.720198   -36234.835    137.38872    137.38872    137.38872
  950000    299.82905   -17.895168   -36131.666    137.47264    137.47264    137.47264
  951000    299.57667   -54.766229   -36183.939    137.42811    137.42811    137.42811
  952000    299.97093   -60.258265   -36155.162     137.4884     137.4884     137.4884
  953000    300.15598    55.038426   -36005.051    137.41415    137.41415    137.41415
  954000    300.63682   -91.940109   -36222.321     137.4487     137.4487     137.4487
  955000     300.1285   -79.655067   -36231.255    137.44174    137.44174    137.44174
  956000    300.52695    108.90202   -35897.605    137.39851    137.39851    137.39851
  957000    300.00712     6.531046   -36089.823    137.42451    137.42451    137.42451
  958000    299.40233   -173.71522   -36400.336    137.44816    137.44816    137.44816
  959000    300.33221   -166.20751   -36370.002    137.48858    137.48858    137.48858
  960000    299.80349    25.751748   -36089.585    137.43582    137.43582    137.43582
  961000    299.99856    111.09362   -35910.878    137.38016    137.38016    137.38016
  962000    299.67369    162.99707   -35852.732    137.42764    137.42764    137.42764
  963000    299.86067    45.236763   -36013.244    137.46553    137.46553    137.46553
  964000    300.86204   -189.28114   -36358.611    137.40609    137.40609    137.40609
  965000     300.0028    97.500056   -35929.797    137.42383    137.42383    137.42383
  966000    300.11596    237.21913   -35696.618    137.45174    137.45174    137.45174
  967000    300.08804   -4.9926974   -36107.155    137.50548    137.50548    137.50548
  968000    299.85988   -11.842179   -36130.785    137.42459    137.42459    137.42459
  969000    299.18743    62.746744   -36002.475    137.39556    137.39556    137.39556
  970000    300.20656   -51.641009   -36162.272     137.3933     137.3933     137.3933
  971000    300.03271     -32.6227    -36156.98    137.39582    137.39582    137.39582
  972000    299.12789   -146.05655   -36355.904    137.42411    137.42411    137.42411
  973000    300.03135    55.167953   -36036.077    137.44179    137.44179    137.44179
  974000    300.22444    49.488764    -36022.56    137.42042    137.42042    137.42042
  975000    300.26598    82.537483   -35942.606    137.46583    137.46583    137.46583
  976000    300.69535    29.543574    -36008.35    137.43963    137.43963    137.43963
  977000    300.11902    118.57875   -35931.138    137.46884    137.46884    137.46884
  978000    300.18425   -150.43531   -36317.099    137.44844    137.44844    137.44844
  979000    300.53357    11.694423   -36016.905    137.45778    137.45778    137.45778
  980000    299.46802    -122.1724   -36289.629      137.455      137.455      137.455
  981000     299.0681   -161.64568   -36411.921    137.49856    137.49856    137.49856
  982000    299.73446   -18.783883   -36103.479    137.40729    137.40729    137.40729
  983000    300.27655    264.88254   -35657.829    137.38798    137.38798    137.38798
  984000    300.16611   -71.517316   -36210.807    137.45957    137.45957    137.45957
  985000    300.79038    -77.79527   -36176.417    137.41804    137.41804    137.41804
  986000    299.86047   -41.474826   -36194.399    137.44751    137.44751    137.44751
  987000    300.40962    147.00151   -35847.118    137.41809    137.41809    137.41809
  988000    299.89708    196.18366   -35795.636    137.51069    137.51069    137.51069
  989000    300.03044    63.244822   -36006.406    137.46469    137.46469    137.46469
  990000      300.059    123.35649   -35926.831    137.43849    137.43849    137.43849
  991000    300.55466    211.01739   -35781.572    137.36694    137.36694    137.36694
  992000    300.90721     46.06178   -36031.549    137.37268    137.37268    137.37268
  993000    299.56452   -75.820617   -36222.272    137.46147    137.46147    137.46147
  994000    299.84049   -65.342115   -36212.646    137.44591    137.44591    137.44591
  995000    298.87059   -49.403981   -36238.464    137.38043    137.38043    137.38043
  996000    299.66322    64.897586   -35974.647    137.43824    137.43824    137.43824
  997000    299.27669   -188.25644   -36372.018    137.43717    137.43717    137.43717
  998000     300.3545  -0.90916788   -36115.908    137.43785    137.43785    137.43785
  999000    300.05078    188.64244   -35806.229    137.42314    137.42314    137.42314
 1000000    299.20901    144.63123   -35875.397    137.47118    137.47118    137.47118
Loop time of 21772.8 on 1088 procs for 1000000 steps with 265838 atoms

Performance: 3.968 ns/day, 6.048 hours/ns, 45.929 timesteps/s
96.7% CPU use with 1088 MPI tasks x 1 OpenMP threads

MPI task timing breakdown:
Section |  min time  |  avg time  |  max time  |%varavg| %total
---------------------------------------------------------------
Pair    | 3891.6     | 8006.2     | 8630.7     | 483.3 | 36.77
Bond    | 33.281     | 69.391     | 76.964     |  41.3 |  0.32
Kspace  | 9682       | 10330      | 14498      | 428.9 | 47.44
Neigh   | 773.67     | 779.5      | 784.76     |   8.0 |  3.58
Comm    | 731.63     | 827.44     | 901.41     | 159.2 |  3.80
Output  | 5.4237     | 5.4447     | 5.5612     |   0.3 |  0.03
Modify  | 1249.1     | 1355.2     | 1691.3     | 222.1 |  6.22
Other   |            | 399.7      |            |       |  1.84

Nlocal:    244.336 ave 279 max 165 min
Histogram: 3 3 6 0 1 98 417 475 81 4
Nghost:    5322.52 ave 5451 max 4615 min
Histogram: 4 3 5 0 7 5 18 87 744 215
Neighs:    30.4026 ave 3778 max 0 min
Histogram: 1076 0 0 0 1 3 3 2 2 1

Total # of neighbors = 33078
Ave neighs/atom = 0.124429
Ave special neighs/atom = 1.99333
Neighbor list builds = 63996
Dangerous builds = 0

write_restart equil_npt.rest
PPPM initialization ...
  using 12-bit tables for long-range coulomb (../kspace.cpp:321)
  G vector (1/distance) = 0.264897
  grid = 72 72 72
  stencil order = 5
  estimated absolute RMS force accuracy = 0.00132176
  estimated relative force accuracy = 9.17911e-05
  using double precision FFTs
  3d grid and FFT values/proc = 2816 648
WARNING: Using a manybody potential with bonds/angles/dihedrals and special_bond exclusions (../pair.cpp:218)
Neighbor list info ...
  update every 1 steps, delay 2 steps, check yes
  max neighbors/atom: 2000, page size: 100000
  master list distance cutoff = 12
  ghost atom cutoff = 12
  binsize = 6, bins = 23 23 23
  3 neighbor lists, perpetual/occasional/extra = 3 0 0
  (1) pair eam, perpetual, skip from (3)
      attributes: half, newton on
      pair build: skip
      stencil: none
      bin: none
  (2) pair lj/charmm/coul/long, perpetual, skip from (3)
      attributes: half, newton on
      pair build: skip
      stencil: none
      bin: none
  (3) neighbor class addition, perpetual
      attributes: half, newton on
      pair build: half/bin/newton
      stencil: half/bin/3d/newton
      bin: standard
Total wall time: 11:36:19
